# Force coefficients
# liftDir     : (0.000000e+00 1.000000e+00 0.000000e+00)
# dragDir     : (1.000000e+00 0.000000e+00 0.000000e+00)
# pitchAxis   : (0.000000e+00 0.000000e+00 1.000000e+00)
# magUInf     : 2.500000e+01
# lRef        : 1.000000e+00
# Aref        : 1.000000e+00
# CofR        : (0.000000e+00 0.000000e+00 0.000000e+00)
# Time          Cm              Cd              Cl              Cl(f)           Cl(r)
0               5.418191e-08    5.745293e-03    6.876906e-08    8.856644e-08    -1.979738e-08
50              -3.220477e-02   7.384989e-02    -6.140574e-02   -6.290764e-02   1.501897e-03
100             -4.780885e-04   3.990128e-02    -2.927344e-04   -6.244556e-04   3.317213e-04